<?xml version="1.0"?>
<VTKFile type="ImageData" version="1.0" byte_order="LittleEndian">
  <ImageData WholeExtent="0 74 0 74 0 49">
    <Piece Extent="0 74 0 74 0 49">
      <PointData>
        <DataArray type="Float64" Name="Grid" NumberOfComponents="1" format="ascii">
0.6407 0.6407 0.6407 0.6407 0.6407 0.6407 0.6407 0.6407 0.6407 0.6407 0.6407 0.6407 0.6407 0.6407 0.6407 0.6407 0.6407 0.6407 0.6407 0.6407 0.6407 0.6407 0.6407 0.6407 0.6407 0.6407 0.6407 0.6407 0.6407 0.6407 0.6407 0.6407 0.6407 0.6407 0.6407 0.6407 0.6407 0.6407 0.6407 0.6407 0.6407 0.6407 0.6407 0.6407 0.6407 0.6407 0.6407 0.6407 0.6407 0.6407 0.6407 0.6407 0.6407 0.6407 0.6407 0.6407 0.6407 0.6407 0.6407 0.6407 0.6407 0.6407 0.6407 0.6407 0.6407 0.6407 0.6407 0.6407 0.6407 0.6407 0.6407 0.6407 0.6407 0.6407 0.6407 0.6407 0.6407 0.6407 0.6407 0.6407 0.6407 0.6407 0.6407 0.6407 0.6407 0.6407 0.6407 0.6407 0.6407 0.6407 0.6407 0.6407 0.6407 0.6407 0.6407 0.6407 0.6407 0.6407 0.6407 0.6407 0.6407 0.6407 0.6407 0.6407 0.6407 0.6407 0.6407 0.6407 0.6407 0.6407 0.6407 0.6407 0.6407 0.6407 0.6407 0.6407 0.6407 0.6407 0.6407 0.6407 0.6407 0.6407 0.6407 0.6407 0.6407 0.6407 0.6407 0.6407 0.6407 0.6407 0.6407 0.6407 0.6407 0.6407 0.6407 0.6407 0.6407 0.6407 0.6407 0.6407 0.6407 0.6407 0.6407 0.6407 0.6407 0.6407 0.6407 0.6407 0.6407 0.6407 0.6407 0.6407 0.6407 0.6407 0.6407 0.6407 0.6407 0.6407 0.6407 0.6407 0.6407 0.6407 0.6407 0.6407 0.6407 0.6407 0.6407 0.6407 0.6407 0.6407 0.6407 0.6407 0.6407 0.6407 0.6407 0.6407 0.6407 0.6407 0.6407 0.6407 0.6407 0.6407 0.6407 0.6407 0.6407 0.6407 0.6407 0.6407 0.6407 0.6407 0.6407 0.6407 0.6407 0.6407 0.6407 0.6407 0.6407 0.6407 0.6407 0.6407 0.6407 0.6407 0.6407 0.6407 0.6407 0.6407 0.6407 0.6407 0.6407 0.6407 0.6407 0.6407 0.6407 0.6407 0.6407 0.6407 0.6407 0.6407 0.6407 0.6407 0.6407 0.6407 0.6407 0.6407 0.6407 0.6407 0.6407 0.6407 0.6407 0.6407 0.6407 0.6407 0.6407 0.6407 0.6407 0.6407 0.6407 0.6407 0.6407 0.6407 0.6407 0.6407 0.6407 0.6407 0.6407 0.6407 0.6407 0.6407 0.6407 0.6407 0.6407 0.6407 0.6407 0.6407 0.6407 0.6407 0.6407 0.6407 0.6407 0.6407 0.6407 0.6407 0.6407 0.6407 0.6407 0.6407 0.6407 0.6407 0.6407 0.6407 0.6407 0.6407 0.6407 0.6407 0.6407 0.6407 0.6407 0.6407 0.6407 0.6407 0.6407 0.6407 0.6407 0.6407 0.6407 0.6407 0.6407 0.6407 0.6407 0.6407 0.6407 0.6407 0.6407 0.6407 0.6407 0.6407 0.6407 0.6407 0.6407 0.6407 0.6407 0.6407 0.6407 0.6407 0.6407 0.6407 0.6407 0.6407 0.6407 0.6407 0.6407 0.6407 0.6407 0.6407 0.6407 0.6407 0.6407 0.6407 0.6407 0.6407 0.6407 0.6407 0.6407 0.6407 0.6407 0.6407 0.6407 0.6407 0.6407 0.6407 0.6407 0.6407 0.6407 0.6407 0.6407 0.6407 0.6407 0.6407 0.6407 0.6407 0.6407 0.6407 0.6407 0.6407 0.6407 0.6407 0.6407 0.6407 0.6407 0.6407 0.6407 0.6407 0.6407 0.6407 0.6407 0.6407 0.6407 0.6407 0.6407 0.6407 0.6407 0.6407 0.6407 0.6407 0.6407 0.6407 0.6407 0.6407 0.6407 0.6407 0.6407 0.6407 0.6407 0.6407 0.6407 0.6407 0.6407 0.6407 0.6407 0.6407 0.6407 0.6407 0.6407 0.6407 0.6407 0.6407 0.6407 0.6407 0.6407 0.6407 0.6407 0.6407 0.6407 0.6407 0.6407 0.6407 0.6407 0.6407 0.6407 0.6407 0.6407 0.6407 0.6407 0.6407 0.6407 0.6407 0.6407 0.6407 0.6407 0.6407 0.6407 0.6407 0.6407 0.6407 0.6407 0.6407 0.6407 0.6407 0.6407 0.6407 0.6407 0.6407 0.6407 0.6407 0.6407 0.6407 0.6407 0.6407 0.6407 0.6407 0.6407 0.6407 0.6407 0.6407 0.6407 0.6407 0.6407 0.6407 0.6407 0.6407 0.6407 0.6407 0.6407 0.6407 0.6407 0.6407 0.6407 0.6407 0.6407 0.6407 0.6407 0.6407 0.6407 0.6407 0.6407 0.6407 0.6407 0.6407 0.6407 0.6407 0.6407 0.6407 0.6407 0.6407 0.6407 0.6407 0.6407 0.6407 0.6407 0.6407 0.6407 0.6407 0.6407 0.6407 0.6407 0.6407 0.6407 0.6407 0.6407 0.6407 0.6407 0.6407 0.6407 0.6407 0.6407 0.6407 0.6407 0.6407 0.6407 0.6407 0.6407 0.6407 0.6407 0.6407 0.6407 0.6407 0.6407 0.6407 0.6407 0.6407 0.6407 0.6407 0.6407 0.6407 0.6407 0.6407 0.6407 0.6407 0.6407 0.6407 0.6407 0.6407 0.6407 0.6407 0.6407 0.6407 0.6407 0.6407 0.6407 0.6407 0.6407 0.6407 0.6407 0.6407 0.6407 0.6407 0.6407 0.6407 0.6407 0.6407 0.6407 0.6407 0.6407 0.6407 0.6407 0.6407 0.6407 0.6407 0.6407 0.6407 0.6407 0.6407 0.6407 0.6407 0.6407 0.6407 0.6407 0.6407 0.6407 0.6407 0.6407 0.6407 0.6407 0.6407 0.6407 0.6407 0.6407 0.6407 0.6407 0.6407 0.6407 0.6407 0.6407 0.6407 0.6407 0.6407 0.6407 0.6407 0.6407 0.6407 0.6407 0.6407 0.6407 0.6407 0.6407 0.6407 0.6407 0.6407 0.6407 0.6407 0.6407 0.6407 0.6407 0.6407 0.6407 0.6407 0.6407 0.6407 0.6407 0.6407 0.6407 0.6407 0.6407 0.6407 0.6407 0.6407 0.6407 0.6407 0.6407 0.6407 0.6407 0.6407 0.6407 0.6407 0.6407 0.6407 0.6407 0.6407 0.6407 0.6407 0.6407 0.6407 0.6407 0.6407 0.6407 0.6407 0.6407 0.6407 0.6407 0.6407 0.6407 0.6407 0.6407 0.6407 0.6407 0.6407 0.6407 0.6407 0.6407 0.6407 0.6407 0.6407 0.6407 0.6407 0.6407 0.6407 0.6407 0.6407 0.6407 0.6407 0.6407 0.6407 0.6407 0.6407 0.6407 0.6407 0.6407 0.6407 0.6407 0.6407 0.6407 0.6407 0.6407 0.6407 0.6407 0.6407 0.6407 0.6407 0.6407 0.6407 0.6407 0.6407 0.6407 0.6407 0.6407 0.6407 0.6407 0.6407 0.6407 0.6407 0.6407 0.6407 0.6407 0.6407 0.6407 0.6407 0.6407 0.6407 0.6407 0.6407 0.6407 0.6407 0.6407 0.6407 0.6407 0.6407 0.6407 0.6407 0.6407 0.6407 0.6407 0.6407 0.6407 0.6407 0.6407 0.6407 0.6407 0.6407 0.6407 0.6407 0.6407 0.6407 0.6407 0.6407 0.6407 0.6407 0.6407 0.6407 0.6407 0.6407 0.6407 0.6407 0.6407 0.6407 0.6407 0.6407 0.6407 0.6407 0.6407 0.6407 0.6407 0.6407 0.6407 0.6407 0.6407 0.6407 0.6407 0.6407 0.6407 0.6407 0.6407 0.6407 0.6407 0.6407 0.6407 0.6407 0.6407 0.6407 0.6407 0.6407 0.6407 0.6407 0.6407 0.6407 0.6407 0.6407 0.6407 0.6407 0.6407 0.6407 0.6407 0.6407 0.6407 0.6407 0.6407 0.6407 0.6407 0.6407 0.6407 0.6407 0.6407 0.6407 0.6407 0.6407 0.6407 0.6407 0.6407 0.6407 0.6407 0.6407 0.6407 0.6407 0.6407 0.6407 0.6407 0.6407 0.6407 0.6407 0.6407 0.6407 0.6407 0.6407 0.6407 0.6407 0.6407 0.6407 0.6407 0.6407 0.6407 0.6407 0.6407 0.6407 0.6407 0.6407 0.6407 0.6407 0.6407 0.6407 0.6407 0.6407 0.6407 0.6407 0.6407 0.6407 0.6407 0.6407 0.6407 0.6407 0.6407 0.6407 0.6407 0.6407 0.6407 0.6407 0.6407 0.6407 0.6407 0.6407 0.6407 0.6407 0.6407 0.6407 0.6407 0.6407 0.6407 0.6407 0.6407 0.6407 0.6407 0.6407 0.6407 0.6407 0.6407 0.6407 0.6407 0.6407 0.6407 0.6407 0.6407 0.6407 0.6407 0.6407 0.6407 0.6407 0.6407 0.6407 0.6407 0.6407 0.6407 0.6407 0.6407 0.6407 0.6407 0.6407 0.6407 0.6407 0.6407 0.6407 0.6407 0.6407 0.6407 0.6407 0.6407 0.6407 0.6407 0.6407 0.6407 0.6407 0.6407 0.6407 0.6407 0.6407 0.6407 0.6407 0.6407 0.6407 0.6407 0.6407 0.6407 0.6407 0.6407 0.6407 0.6407 0.6407 0.6407 0.6407 0.6407 0.6407 0.6407 0.6407 0.6407 0.6407 0.6407 0.6407 0.6407 0.6407 0.6407 0.6407 0.6407 0.6407 0.6407 0.6407 0.6407 0.6407 0.6407 0.6407 0.6407 0.6407 0.6407 0.6407 0.6407 0.6407 0.6407 0.6407 0.6407 0.6407 0.6407 0.6407 0.6407 0.6407 0.6407 0.6407 0.6407 0.6407 0.6407 0.6407 0.6407 0.6407 0.6407 0.6407 0.6407 0.6407 0.6407 0.6407 0.6407 0.6407 0.6407 0.6407 0.6407 0.6407 0.6407 0.6407 0.6407 0.6407 0.6407 0.6407 0.6407 0.6407 0.6407 0.6407 0.6407 0.6407 0.6407 0.6407 0.6407 0.6407 0.6407 0.6407 0.6407 0.6407 0.6407 0.6407 0.6407 0.6407 0.6407 0.6407 0.6407 0.6407 0.6407 0.6407 0.6407 0.6407 0.6407 0.6407 0.6407 0.6407 0.6407 0.6407 0.6407 0.6407 0.6407 0.6407 0.6407 0.6407 0.6407 0.6407 0.6407 0.6407 0.6407 0.6407 0.6407 0.6407 0.6407 0.6407 0.6407 0.6407 0.6407 0.6407 0.6407 0.6407 0.6407 0.6407 0.6407 0.6407 0.6407 0.6407 0.6407 0.6407 0.6407 0.6407 0.6407 0.6407 0.6407 0.6407 0.6407 0.6407 0.6407 0.6407 0.6407 0.6407 0.6407 0.6407 0.6407 0.6407 0.6407 0.6407 0.6407 0.6407 0.6407 0.6407 0.6407 0.6407 0.6407 0.6407 0.6407 0.6407 0.6407 0.6407 0.6407 0.6407 0.6407 0.6407 0.6407 0.6407 0.6407 0.6407 0.6407 0.6407 0.6407 0.6407 0.6407 0.6407 0.6407 0.6407 0.6407 0.6407 0.6407 0.6407 0.6407 0.6407 0.6407 0.6407 0.6407 0.6407 0.6407 0.6407 0.6407 0.6407 0.6407 0.6407 0.6407 0.6407 0.6407 0.6407 0.6407 0.6407 0.6407 0.6407 0.6407 0.6407 0.6407 0.6407 0.6407 0.6407 0.6407 0.6407 0.6407 0.6407 0.6407 0.6407 0.6407 0.6407 0.6407 0.6407 0.6407 0.6407 0.6407 0.6407 0.6407 0.6407 0.6407 0.6407 0.6407 0.6407 0.6407 0.6407 0.6407 0.6407 0.6407 0.6407 0.6407 0.6407 0.6407 0.6407 0.6407 0.6407 0.6407 0.6407 0.6407 0.6407 0.6407 0.6407 0.6407 0.6407 0.6407 0.6407 0.6407 0.6407 0.6407 0.6407 0.6407 0.6407 0.6407 0.6407 0.6407 0.6407 0.6407 0.6407 0.6407 0.6407 0.6407 0.6407 0.6407 0.6407 0.6407 0.6407 0.6407 0.6407 0.6407 0.6407 0.6407 0.6407 0.6407 0.6407 0.6407 0.6407 0.6407 0.6407 0.6407 0.6407 0.6407 0.6407 0.6407 0.6407 0.6407 0.6407 0.6407 0.6407 0.6407 0.6407 0.6407 0.6407 0.6407 0.6407 0.6407 0.6407 0.6407 0.6407 0.6407 0.6407 0.6407 0.6407 0.6407 0.6407 0.6407 0.6407 0.6407 0.6407 0.6407 0.6407 0.6407 0.6407 0.6407 0.6407 0.6407 0.6407 0.6407 0.6407 0.6407 0.6407 0.6407 0.6407 0.6407 0.6407 0.6407 0.6407 0.6407 0.6407 0.6407 0.6407 0.6407 0.6407 0.6407 0.6407 0.6407 0.6407 0.6407 0.6407 0.6407 0.6407 0.6407 0.6407 0.6407 0.6407 0.6407 0.6407 0.6407 0.6407 0.6407 0.6407 0.6407 0.6407 0.6407 0.6407 0.6407 0.6407 0.6407 0.6407 0.6407 0.6407 0.6407 0.6407 0.6407 0.6407 0.6407 0.6407 0.6407 0.6407 0.6407 0.6407 0.6407 0.6407 0.6407 0.6407 0.6407 0.6407 0.6407 0.6407 0.6407 0.6407 0.6407 0.6407 0.6407 0.6407 0.6407 0.6407 0.6407 0.6407 0.6407 0.6407 0.6407 0.6407 0.6407 0.6407 0.6407 0.6407 0.6407 0.6407 0.6407 0.6407 0.6407 0.6407 0.6407 0.6407 0.6407 0.6407 0.6407 0.6407 0.6407 0.6407 0.6407 0.6407 0.6407 0.6407 0.6407 0.6407 0.6407 0.6407 0.6407 0.6407 0.6407 0.6407 0.6407 0.6407 0.6407 0.6407 0.6407 0.6407 0.6407 0.6407 0.6407 0.6407 0.6407 0.6407 0.6407 0.6407 0.6407 0.6407 0.6407 0.6407 0.6407 0.6407 0.6407 0.6407 0.6407 0.6407 0.6407 0.6407 0.6407 0.6407 0.6407 0.6407 0.6407 0.6407 0.6407 0.6407 0.6407 0.6407 0.6407 0.6407 0.6407 0.6407 0.6407 0.6407 0.6407 0.6407 0.6407 0.6407 0.6407 0.6407 0.6407 0.6407 0.6407 0.6407 0.6407 0.6407 0.6407 0.6407 0.6407 0.6407 0.6407 0.6407 0.6407 0.6407 0.6407 0.6407 0.6407 0.6407 0.6407 0.6407 0.6407 0.6407 0.6407 0.6407 0.6407 0.6407 0.6407 0.6407 0.6407 0.6407 0.6407 0.6407 0.6407 0.6407 0.6407 0.6407 0.6407 0.6407 0.6407 0.6407 0.6407 0.6407 0.6407 0.6407 0.6407 0.6407 0.6407 0.6407 0.6407 0.6407 0.6407 0.6407 0.6407 0.6407 0.6407 0.6407 0.6407 0.6407 0.6407 0.6407 0.6407 0.6407 0.6407 0.6407 0.6407 0.6407 0.6407 0.6407 0.6407 0.6407 0.6407 0.6407 0.6407 0.6407 0.6407 0.6407 0.6407 0.6407 0.6407 0.6407 0.6407 0.6407 0.6407 0.6407 0.6407 0.6407 0.6407 0.6407 0.6407 0.6407 0.6407 0.6407 0.6407 0.6407 0.6407 0.6407 0.6407 0.6407 0.6407 0.6407 0.6407 0.6407 0.6407 0.6407 0.6407 0.6407 0.6407 0.6407 0.6407 0.6407 0.6407 0.6407 0.6407 0.6407 0.6407 0.6407 0.6407 0.6407 0.6407 0.6407 0.6407 0.6407 0.6407 0.6407 0.6407 0.6407 0.6407 0.6407 0.6407 0.6407 0.6407 0.6407 0.6407 0.6407 0.6407 0.6407 0.6407 0.6407 0.6407 0.6407 0.6407 0.6407 0.6407 0.6407 0.6407 0.6407 0.6407 0.6407 0.6407 0.6407 0.6407 0.6407 0.6407 0.6407 0.6407 0.6407 0.6407 0.6407 0.6407 0.6407 0.6407 0.6407 0.6407 0.6407 0.6407 0.6407 0.6407 0.6407 0.6407 0.6407 0.6407 0.6407 0.6407 0.6407 0.6407 0.6407 0.6407 0.6407 0.6407 0.6407 0.6407 0.6407 0.6407 0.6407 0.6407 0.6407 0.6407 0.6407 0.6407 0.6407 0.6407 0.6407 0.6407 0.6407 0.6407 0.6407 0.6407 0.6407 0.6407 0.6407 0.6407 0.6407 0.6407 0.6407 0.6407 0.6407 0.6407 0.6407 0.6407 0.6407 0.6407 0.6407 0.6407 0.6407 0.6407 0.6407 0.6407 0.6407 0.6407 0.6407 0.6407 0.6407 0.6407 0.6407 0.6407 0.6407 0.6407 0.6407 0.6407 0.6407 0.6407 0.6407 0.6407 0.6407 0.6407 0.6407 0.6407 0.6407 0.6407 0.6407 0.6407 0.6407 0.6407 0.6407 0.6407 0.6407 0.6407 0.6407 0.6407 0.6407 0.6407 0.6407 0.6407 0.6407 0.6407 0.6407 0.6407 0.6407 0.6407 0.6407 0.6407 0.6407 0.6407 0.6407 0.6407 0.6407 0.6407 0.6407 0.6407 0.6407 0.6407 0.6407 0.6407 0.6407 0.6407 0.6407 0.6407 0.6407 0.6407 0.6407 0.6407 0.6407 0.6407 0.6407 0.6407 0.6407 0.6407 0.6407 0.6407 0.6407 0.6407 0.6407 0.6407 0.6407 0.6407 0.6407 0.6407 0.6407 0.6407 0.6407 0.6407 0.6407 0.6407 0.6407 0.6407 0.6407 0.6407 0.6407 0.6407 0.6407 0.6407 0.6407 0.6407 0.6407 0.6407 0.6407 0.6407 0.6407 0.6407 0.6407 0.6407 0.6407 0.6407 0.6407 0.6407 0.6407 0.6407 0.6407 0.6407 0.6407 0.6407 0.6407 0.6407 0.6407 0.6407 0.6407 0.6407 0.6407 0.6407 0.6407 0.6407 0.6407 0.6407 0.6407 0.6407 0.6407 0.6407 0.6407 0.6407 0.6407 0.6407 0.6407 0.6407 0.6407 0.6407 0.6407 0.6407 0.6407 0.6407 0.6407 0.6407 0.6407 0.6407 0.6407 0.6407 0.6407 0.6407 0.6407 0.6407 0.6407 0.6407 0.6407 0.6407 0.6407 0.6407 0.6407 0.6407 0.6407 0.6407 0.6407 0.6407 0.6407 0.6407 0.6407 0.6407 0.6407 0.6407 0.6407 0.6407 0.6407 0.6407 0.6407 0.6407 0.6407 0.6407 0.6407 0.6407 0.6407 0.6407 0.6407 0.6407 0.6407 0.6407 0.6407 0.6407 0.6407 0.6407 0.6407 0.6407 0.6407 0.6407 0.6407 0.6407 0.6407 0.6407 0.6407 0.6407 0.6407 0.6407 0.6407 0.6407 0.6407 0.6407 0.6407 0.6407 0.6407 0.6407 0.6407 0.6407 0.6407 0.6407 0.6407 0.6407 0.6407 0.6407 0.6407 0.6407 0.6407 0.6407 0.6407 0.6407 0.6407 0.6407 0.6407 0.6407 0.6407 0.6407 0.6407 0.6407 0.6407 0.6407 0.6407 0.6407 0.6407 0.6407 0.6407 0.6407 0.6407 0.6407 0.6407 0.6407 0.6407 0.6407 0.6407 0.6407 0.6407 0.6407 0.6407 0.6407 0.6407 0.6407 0.6407 0.6407 0.6407 0.6407 0.6407 0.6407 0.6407 0.6407 0.6407 0.6407 0.6407 0.6407 0.6407 0.6407 0.6407 0.6407 0.6407 0.6407 0.6407 0.6407 0.6407 0.6407 0.6407 0.6407 0.6407 0.6407 0.6407 0.6407 0.6407 0.6407 0.6407 0.6407 0.6407 0.6407 0.6407 0.6407 0.6407 0.6407 0.6407 0.6407 0.6407 0.6407 0.6407 0.6407 0.6407 0.6407 0.6407 0.6407 0.6407 0.6407 0.6407 0.6407 0.6407 0.6407 0.6407 0.6407 0.6407 0.6407 0.6407 0.6407 0.6407 0.6407 0.6407 0.6407 0.6407 0.6407 0.6407 0.6407 0.6407 0.6407 0.6407 0.6407 0.6407 0.6407 0.6407 0.6407 0.6407 0.6407 0.6407 0.6407 0.6407 0.6407 0.6407 0.6407 0.6407 0.6407 0.6407 0.6407 0.6407 0.6407 0.6407 0.6407 0.6407 0.6407 0.6407 0.6407 0.6407 0.6407 0.6407 0.6407 0.6407 0.6407 0.6407 0.6407 0.6407 0.6407 0.6407 0.6407 0.6407 0.6407 0.6407 0.6407 0.6407 0.6407 0.6407 0.6407 0.6407 0.6407 0.6407 0.6407 0.6407 0.6407 0.6407 0.6407 0.6407 0.6407 0.6407 0.6407 0.6407 0.6407 0.6407 0.6407 0.6407 0.6407 0.6407 0.6407 0.6407 0.6407 0.6407 0.6407 0.6407 0.6407 0.6407 0.6407 0.6407 0.6407 0.6407 0.6407 0.6407 0.6407 0.6407 0.6407 0.6407 0.6407 0.6407 0.6407 0.6407 0.6407 0.6407 0.6407 0.6407 0.6407 0.6407 0.6407 0.6407 0.6407 0.6407 0.6407 0.6407 0.6407 0.6407 0.6407 0.6407 0.6407 0.6407 0.6407 0.6407 0.6407 0.6407 0.6407 0.6407 0.6407 0.6407 0.6407 0.6407 0.6407 0.6407 0.6407 0.6407 0.6407 0.6407 0.6407 0.6407 0.6407 0.6407 0.6407 0.6407 0.6407 0.6407 0.6407 0.6407 0.6407 0.6407 0.6407 0.6407 0.6407 0.6407 0.6407 0.6407 0.6407 0.6407 0.6407 0.6407 0.6407 0.6407 0.6407 0.6407 0.6407 0.6407 0.6407 0.6407 0.6407 0.6407 0.6407 0.6407 0.6407 0.6407 0.6407 0.6407 0.6407 0.6407 0.6407 0.6407 0.6407 0.6407 0.6407 0.6407 0.6407 0.6407 0.6407 0.6407 0.6407 0.6407 0.6407 0.6407 0.6407 0.6407 0.6407 0.6407 0.6407 0.6407 0.6407 0.6407 0.6407 0.6407 0.6407 0.6407 0.6407 0.6407 0.6407 0.6407 0.6407 0.6407 0.6407 0.6407 0.6407 0.6407 0.6407 0.6407 0.6407 0.6407 0.6407 0.6407 0.6407 0.6407 0.6407 0.6407 0.6407 0.6407 0.6407 0.6407 0.6407 0.6407 0.6407 0.6407 0.6407 0.6407 0.6407 0.6407 0.6407 0.6407 0.6407 0.6407 0.6407 0.6407 0.6407 0.6407 0.6407 0.6407 0.6407 0.6407 0.6407 0.6407 0.6407 0.6407 0.6407 0.6407 0.6407 0.6407 0.6407 0.6407 0.6407 0.6407 0.6407 0.6407 0.6407 0.6407 0.6407 0.6407 0.6407 0.6407 0.6407 0.6407 0.6407 0.6407 0.6407 0.6407 0.6407 0.6407 0.6407 0.6407 0.6407 0.6407 0.6407 0.6407 0.6407 0.6407 0.6407 0.6407 0.6407 0.6407 0.6407 0.6407 0.6407 0.6407 0.6407 0.6407 0.6407 0.6407 0.6407 0.6407 0.6407 0.6407 0.6407 0.6407 0.6407 0.6407 0.6407 0.6407 0.6407 0.6407 0.6407 0.6407 0.6407 0.6407 0.6407 0.6407 0.6407 0.6407 0.6407 0.6407 0.6407 0.6407 0.6407 0.6407 0.6407 0.6407 0.6407 0.6407 0.6407 0.6407 0.6407 0.6407 0.6407 0.6407 0.6407 0.6407 0.6407 0.6407 0.6407 0.6407 0.6407 0.6407 0.6407 0.6407 0.6407 0.6407 0.6407 0.6407 0.6407 0.6407 0.6407 0.6407 0.6407 0.6407 0.6407 0.6407 0.6407 0.6407 0.6407 0.6407 0.6407 0.6407 0.6407 0.6407 0.6407 0.6407 0.6407 0.6407 0.6407 0.6407 0.6407 0.6407 0.6407 0.6407 0.6407 0.6407 0.6407 0.6407 0.6407 0.6407 0.6407 0.6407 0.6407 0.6407 0.6407 0.6407 0.6407 0.6407 0.6407 0.6407 0.6407 0.6407 0.6407 0.6407 0.6407 0.6407 0.6407 0.6407 0.6407 0.6407 0.6407 0.6407 0.6407 0.6407 0.6407 0.6407 0.6407 0.6407 0.6407 0.6407 0.6407 0.6407 0.6407 0.6407 0.6407 0.6407 0.6407 0.6407 0.6407 0.6407 0.6407 0.6407 0.6407 0.6407 0.6407 0.6407 0.6407 0.6407 0.6407 0.6407 0.6407 0.6407 0.6407 0.6407 0.6407 0.6407 0.6407 0.6407 0.6407 0.6407 0.6407 0.6407 0.6407 0.6407 0.6407 0.6407 0.6407 0.6407 0.6407 0.6407 0.6407 0.6407 0.6407 0.6407 0.6407 0.6407 0.6407 0.6407 0.6407 0.6407 0.6407 0.6407 0.6407 0.6407 0.6407 0.6407 0.6407 0.6407 0.6407 0.6407 0.6407 0.6407 0.6407 0.6407 0.6407 0.6407 0.6407 0.6407 0.6407 0.6407 0.6407 0.6407 0.6407 0.6407 0.6407 0.6407 0.6407 0.6407 0.6407 0.6407 0.6407 0.6407 0.6407 0.6407 0.6407 0.6407 0.6407 0.6407 0.6407 0.6407 0.6407 0.6407 0.6407 0.6407 0.6407 0.6407 0.6407 0.6407 0.6407 0.6407 0.6407 0.6407 0.6407 0.6407 0.6407 0.6407 0.6407 0.6407 0.6407 0.6407 0.6407 0.6407 0.6407 0.6407 0.6407 0.6407 0.6407 0.6407 0.6407 0.6407 0.6407 0.6407 0.6407 0.6407 0.6407 0.6407 0.6407 0.6407 0.6407 0.6407 0.6407 0.6407 0.6407 0.6407 0.6407 0.6407 0.6407 0.6407 0.6407 0.6407 0.6407 0.6407 0.6407 0.6407 0.6407 0.6407 0.6407 0.6407 0.6407 0.6407 0.6407 0.6407 0.6407 0.6407 0.6407 0.6407 0.6407 0.6407 0.6407 0.6407 0.6407 0.6407 0.6407 0.6407 0.6407 0.6407 0.6407 0.6407 0.6407 0.6407 0.6407 0.6407 0.6407 0.6407 0.6407 0.6407 0.6407 0.6407 0.6407 0.6407 0.6407 0.6407 0.6407 0.6407 0.6407 0.6407 0.6407 0.6407 0.6407 0.6407 0.6407 0.6407 0.6407 0.6407 0.6407 0.6407 0.6407 0.6407 0.6407 0.6407 0.6407 0.6407 0.6407 0.6407 0.6407 0.6407 0.6407 0.6407 0.6407 0.6407 0.6407 0.6407 0.6407 0.6407 0.6407 0.6407 0.6407 0.6407 0.6407 0.6407 0.6407 0.6407 0.6407 0.6407 0.6407 0.6407 0.6407 0.6407 0.6407 0.6407 0.6407 0.6407 0.6407 0.6407 0.6407 0.6407 0.6407 0.6407 0.6407 0.6407 0.6407 0.6407 0.6407 0.6407 0.6407 0.6407 0.6407 0.6407 0.6407 0.6407 0.6407 0.6407 0.6407 0.6407 0.6407 0.6407 0.6407 0.6407 0.6407 0.6407 0.6407 0.6407 0.6407 0.6407 0.6407 0.6407 0.6407 0.6407 0.6407 0.6407 0.6407 0.6407 0.6407 0.6407 0.6407 0.6407 0.6407 0.6407 0.6407 0.6407 0.6407 0.6407 0.6407 0.6407 0.6407 0.6407 0.6407 0.6407 0.6407 0.6407 0.6407 0.6407 0.6407 0.6407 0.6407 0.6407 0.6407 0.6407 0.6407 0.6407 0.6407 0.6407 0.6407 0.6407 0.6407 0.6407 0.6407 0.6407 0.6407 0.6407 0.6407 0.6407 0.6407 0.6407 0.6407 0.6407 0.6407 0.6407 0.6407 0.6407 0.6407 0.6407 0.6407 0.6407 0.6407 0.6407 0.6407 0.6407 0.6407 0.6407 0.6407 0.6407 0.6407 0.6407 0.6407 0.6407 0.6407 0.6407 0.6407 0.6407 0.6407 0.6407 0.6407 0.6407 0.6407 0.6407 0.6407 0.6407 0.6407 0.6407 0.6407 0.6407 0.6407 0.6407 0.6407 0.6407 0.6407 0.6407 0.6407 0.6407 0.6407 0.6407 0.6407 0.6407 0.6407 0.6407 0.6407 0.6407 0.6407 0.6407 0.6407 0.6407 0.6407 0.6407 0.6407 0.6407 0.6407 0.6407 0.6407 0.6407 0.6407 0.6407 0.6407 0.6407 0.6407 0.6407 0.6407 0.6407 0.6407 0.6407 0.6407 0.6407 0.6407 0.6407 0.6407 0.6407 0.6407 0.6407 0.6407 0.6407 0.6407 0.6407 0.6407 0.6407 0.6407 0.6407 0.6407 0.6407 0.6407 0.6407 0.6407 0.6407 0.6407 0.6407 0.6407 0.6407 0.6407 0.6407 0.6407 0.6407 0.6407 0.6407 0.6407 0.6407 0.6407 0.6407 0.6407 0.6407 0.6407 0.6407 0.6407 0.6407 0.6407 0.6407 0.6407 0.6407 0.6407 0.6407 0.6407 0.6407 0.6407 0.6407 0.6407 0.6407 0.6407 0.6407 0.6407 0.6407 0.6407 0.6407 0.6407 0.6407 0.6407 0.6407 0.6407 0.6407 0.6407 0.6407 0.6407 0.6407 0.6407 0.6407 0.6407 0.6407 0.6407 0.6407 0.6407 0.6407 0.6407 0.6407 0.6407 0.6407 0.6407 0.6407 0.6407 0.6407 0.6407 0.6407 0.6407 0.6407 0.6407 0.6407 0.6407 0.6407 0.6407 0.6407 0.6407 0.6407 0.6407 0.6407 0.6407 0.6407 0.6407 0.6407 0.6407 0.6407 0.6407 0.6407 0.6407 0.6407 0.6407 0.6407 0.6407 0.6407 0.6407 0.6407 0.6407 0.6407 0.6407 0.6407 0.6407 0.6407 0.6407 0.6407 0.6407 0.6407 0.6407 0.6407 0.6407 0.6407 0.6407 0.6407 0.6407 0.6407 0.6407 0.6407 0.6407 0.6407 0.6407 0.6407 0.6407 0.6407 0.6407 0.6407 0.6407 0.6407 0.6407 0.6407 0.6407 0.6407 0.6407 0.6407 0.6407 0.6407 0.6407 0.6407 0.6407 0.6407 0.6407 0.6407 0.6407 0.6407 0.6407 0.6407 0.6407 0.6407 0.6407 0.6407 0.6407 0.6407 0.6407 0.6407 0.6407 0.6407 0.6407 0.6407 0.6407 0.6407 0.6407 0.6407 0.6407 0.6407 0.6407 0.6407 0.6407 0.6407 0.6407 0.6407 0.6407 0.6407 0.6407 0.6407 0.6407 0.6407 0.6407 0.6407 0.6407 0.6407 0.6407 0.6407 0.6407 0.6407 0.6407 0.6407 0.6407 0.6407 0.6407 0.6407 0.6407 0.6407 0.6407 0.6407 0.6407 0.6407 0.6407 0.6407 0.6407 0.6407 0.6407 0.6407 0.6407 0.6407 0.6407 0.6407 0.6407 0.6407 0.6407 0.6407 0.6407 0.6407 0.6407 0.6407 0.6407 0.6407 0.6407 0.6407 0.6407 0.6407 0.6407 0.6407 0.6407 0.6407 0.6407 0.6407 0.6407 0.6407 0.6407 0.6407 0.6407 0.6407 0.6407 0.6407 0.6407 0.6407 0.6407 0.6407 0.6407 0.6407 0.6407 0.6407 0.6407 0.6407 0.6407 0.6407 0.6407 0.6407 0.6407 0.6407 0.6407 0.6407 0.6407 0.6407 0.6407 0.6407 0.6407 0.6407 0.6407 0.6407 0.6407 0.6407 0.6407 0.6407 0.6407 0.6407 0.6407 0.6407 0.6407 0.6407 0.6407 0.6407 0.6407 0.6407 0.6407 0.6407 0.6407 0.6407 0.6407 0.6407 0.6407 0.6407 0.6407 0.6407 0.6407 0.6407 0.6407 0.6407 0.6407 0.6407 0.6407 0.6407 0.6407 0.6407 0.6407 0.6407 0.6407 0.6407 0.6407 0.6407 0.6407 0.6407 0.6407 0.6407 0.6407 0.6407 0.6407 0.6407 0.6407 0.6407 0.6407 0.6407 0.6407 0.6407 0.6407 0.6407 0.6407 0.6407 0.6407 0.6407 0.6407 0.6407 0.6407 0.6407 0.6407 0.6407 0.6407 0.6407 0.6407 0.6407 0.6407 0.6407 0.6407 0.6407 0.6407 0.6407 0.6407 0.6407 0.6407 0.6407 0.6407 0.6407 0.6407 0.6407 0.6407 0.6407 0.6407 0.6407 0.6407 0.6407 0.6407 0.6407 0.6407 0.6407 0.6407 0.6407 0.6407 0.6407 0.6407 0.6407 0.6407 0.6407 0.6407 0.6407 0.6407 0.6407 0.6407 0.6407 0.6407 0.6407 0.6407 0.6407 0.6407 0.6407 0.6407 0.6407 0.6407 0.6407 0.6407 0.6407 0.6407 0.6407 0.6407 0.6407 0.6407 0.6407 0.6407 0.6407 0.6407 0.6407 0.6407 0.6407 0.6407 0.6407 0.6407 0.6407 0.6407 0.6407 0.6407 0.6407 0.6407 0.6407 0.6407 0.6407 0.6407 0.6407 0.6407 0.6407 0.6407 0.6407 0.6407 0.6407 0.6407 0.6407 0.6407 0.6407 0.6407 0.6407 0.6407 0.6407 0.6407 0.6407 0.6407 0.6407 0.6407 0.6407 0.6407 0.6407 0.6407 0.6407 0.6407 0.6407 0.6407 0.6407 0.6407 0.6407 0.6407 0.6407 0.6407 0.6407 0.6407 0.6407 0.6407 0.6407 0.6407 0.6407 0.6407 0.6407 0.6407 0.6407 0.6407 0.6407 0.6407 0.6407 0.6407 0.6407 0.6407 0.6407 0.6407 0.6407 0.6407 0.6407 0.6407 0.6407 0.6407 0.6407 0.6407 0.6407 0.6407 0.6407 0.6407 0.6407 0.6407 0.6407 0.6407 0.6407 0.6407 0.6407 0.6407 0.6407 0.6407 0.6407 0.6407 0.6407 0.6407 0.6407 0.6407 0.6407 0.6407 0.6407 0.6407 0.6407 0.6407 0.6407 0.6407 0.6407 0.6407 0.6407 0.6407 0.6407 0.6407 0.6407 0.6407 0.6407 0.6407 0.6407 0.6407 0.6407 0.6407 0.6407 0.6407 0.6407 0.6407 0.6407 0.6407 0.6407 0.6407 0.6407 0.6407 0.6407 0.6407 0.6407 0.6407 0.6407 0.6407 0.6407 0.6407 0.6407 0.6407 0.6407 0.6407 0.6407 0.6407 0.6407 0.6407 0.6407 0.6407 0.6407 0.6407 0.6407 0.6407 0.6407 0.6407 0.6407 0.6407 0.6407 0.6407 0.6407 0.6407 0.6407 0.6407 0.6407 0.6407 0.6407 0.6407 0.6407 0.6407 0.6407 0.6407 0.6407 0.6407 0.6407 0.6407 0.6407 0.6407 0.6407 0.6407 0.6407 0.6407 0.6407 0.6407 0.6407 0.6407 0.6407 0.6407 0.6407 0.6407 0.6407 0.6407 0.6407 0.6407 0.6407 0.6407 0.6407 0.6407 0.6407 0.6407 0.6407 0.6407 0.6407 0.6407 0.6407 0.6407 0.6407 0.6407 0.6407 0.6407 0.6407 0.6407 0.6407 0.6407 0.6407 0.6407 0.6407 0.6407 0.6407 0.6407 0.6407 0.6407 0.6407 0.6407 0.6407 0.6407 0.6407 0.6407 0.6407 0.6407 0.6407 0.6407 0.6407 0.6407 0.6407 0.6407 0.6407 0.6407 0.6407 0.6407 0.6407 0.6407 0.6407 0.6407 0.6407 0.6407 0.6407 0.6407 0.6407 0.6407 0.6407 0.6407 0.6407 0.6407 0.6407 0.6407 0.6407 0.6407 0.6407 0.6407 0.6407 0.6407 0.6407 0.6407 0.6407 0.6407 0.6407 0.6407 0.6407 0.6407 0.6407 0.6407 0.6407 0.6407 0.6407 0.6407 0.6407 0.6407 0.6407 0.6407 0.6407 0.6407 0.6407 0.6407 0.6407 0.6407 0.6407 0.6407 0.6407 0.6407 0.6407 0.6407 0.6407 0.6407 0.6407 0.6407 0.6407 0.6407 0.6407 0.6407 0.6407 0.6407 0.6407 0.6407 0.6407 0.6407 0.6407 0.6407 0.6407 0.6407 0.6407 0.6407 0.6407 0.6407 0.6407 0.6407 0.6407 0.6407 0.6407 0.6407 0.6407 0.6407 0.6407 0.6407 0.6407 0.6407 0.6407 0.6407 0.6407 0.6407 0.6407 0.6407 0.6407 0.6407 0.6407 0.6407 0.6407 0.6407 0.6407 0.6407 0.6407 0.6407 0.6407 0.6407 0.6407 0.6407 0.6407 0.6407 0.6407 0.6407 0.6407 0.6407 0.6407 0.6407 0.6407 0.6407 0.6407 0.6407 0.6407 0.6407 0.6407 0.6407 0.6407 0.6407 0.6407 0.6407 0.6407 0.6407 0.6407 0.6407 0.6407 0.6407 0.6407 0.6407 0.6407 0.6407 0.6407 0.6407 0.6407 0.6407 0.6407 0.6407 0.6407 0.6407 0.6407 0.6407 0.6407 0.6407 0.6407 0.6407 0.6407 0.6407 0.6407 0.6407 0.6407 0.6407 0.6407 0.6407 0.6407 0.6407 0.6407 0.6407 0.6407 0.6407 0.6407 0.6407 0.6407 0.6407 0.6407 0.6407 0.6407 0.6407 0.6407 0.6407 0.6407 0.6407 0.6407 0.6407 0.6407 0.6407 0.6407 0.6407 0.6407 0.6407 0.6407 0.6407 0.6407 0.6407 0.6407 0.6407 0.6407 0.6407 0.6407 0.6407 0.6407 0.6407 0.6407 0.6407 0.6407 0.6407 0.6407 0.6407 0.6407 0.6407 0.6407 0.6407 0.6407 0.6407 0.6407 0.6407 0.6407 0.6407 0.6407 0.6407 0.6407 0.6407 0.6407 0.6407 0.6407 0.6407 0.6407 0.6407 0.6407 0.6407 0.6407 0.6407 0.6407 0.6407 0.6407 0.6407 0.6407 0.6407 0.6407 0.6407 0.6407 0.6407 0.6407 0.6407 0.6407 0.6407 0.6407 0.6407 0.6407 0.6407 0.6407 0.6407 0.6407 0.6407 0.6407 0.6407 0.6407 0.6407 0.6407 0.6407 0.6407 0.6407 0.6407 0.6407 0.6407 0.6407 0.6407 0.6407 0.6407 0.6407 0.6407 0.6407 0.6407 0.6407 0.6407 0.6407 0.6407 0.6407 0.6407 0.6407 0.6407 0.6407 0.6407 0.6407 0.6407 0.6407 0.6407 0.6407 0.6407 0.6407 0.6407 0.6407 0.6407 0.6407 0.6407 0.6407 0.6407 0.6407 0.6407 0.6407 0.6407 0.6407 0.6407 0.6407 0.6407 0.6407 0.6407 0.6407 0.6407 0.6407 0.6407 0.6407 0.6407 0.6407 0.6407 0.6407 0.6407 0.6407 0.6407 0.6407 0.6407 0.6407 0.6407 0.6407 0.6407 0.6407 0.6407 0.6407 0.6407 0.6407 0.6407 0.6407 0.6407 0.6407 0.6407 0.6407 0.6407 0.6407 0.6407 0.6407 0.6407 0.6407 0.6407 0.6407 0.6407 0.6407 0.6407 0.6407 0.6407 0.6407 0.6407 0.6407 0.6407 0.6407 0.6407 0.6407 0.6407 0.6407 0.6407 0.6407 0.6407 0.6407 0.6407 0.6407 0.6407 0.6407 0.6407 0.6407 0.6407 0.6407 0.6407 0.6407 0.6407 0.6407 0.6407 0.6407 0.6407 0.6407 0.6407 0.6407 0.6407 0.6407 0.6407 0.6407 0.6407 0.6407 0.6407 0.6407 0.6407 0.6407 0.6407 0.6407 0.6407 0.6407 0.6407 0.6407 0.6407 0.6407 0.6407 0.6407 0.6407 0.6407 0.6407 0.6407 0.6407 0.6407 0.6407 0.6407 0.6407 0.6407 0.6407 0.6407 0.6407 0.6407 0.6407 0.6407 0.6407 0.6407 0.6407 0.6407 0.6407 0.6407 0.6407 0.6407 0.6407 0.6407 0.6407 0.6407 0.6407 0.6407 0.6407 0.6407 0.6407 0.6407 0.6407 0.6407 0.6407 0.6407 0.6407 0.6407 0.6407 0.6407 0.6407 0.6407 0.6407 0.6407 0.6407 0.6407 0.6407 0.6407 0.6407 0.6407 0.6407 0.6407 0.6407 0.6407 0.6407 0.6407 0.6407 0.6407 0.6407 0.6407 0.6407 0.6407 0.6407 0.6407 0.6407 0.6407 0.6407 0.6407 0.6407 0.6407 0.6407 0.6407 0.6407 0.6407 0.6407 0.6407 0.6407 0.6407 0.6407 0.6407 0.6407 0.6407 0.6407 0.6407 0.6407 0.6407 0.6407 0.6407 0.6407 0.6407 0.6407 0.6407 0.6407 0.6407 0.6407 0.6407 0.6407 0.6407 0.6407 0.6407 0.6407 0.6407 0.6407 0.6407 0.6407 0.6407 0.6407 0.6407 0.6407 0.6407 0.6407 0.6407 0.6407 0.6407 0.6407 0.6407 0.6407 0.6407 0.6407 0.6407 0.6407 0.6407 0.6407 0.6407 0.6407 0.6407 0.6407 0.6407 0.6407 0.6407 0.6407 0.6407 0.6407 0.6407 0.6407 0.6407 0.6407 0.6407 0.6407 0.6407 0.6407 0.6407 0.6407 0.6407 0.6407 0.6407 0.6407 0.6407 0.6407 0.6407 0.6407 0.6407 0.6407 0.6407 0.6407 0.6407 0.6407 0.6407 0.6407 0.6407 0.6407 0.6407 0.6407 0.6407 0.6407 0.6407 0.6407 0.6407 0.6407 0.6407 0.6407 0.6407 0.6407 0.6407 0.6407 0.6407 0.6407 0.6407 0.6407 0.6407 0.6407 0.6407 0.6407 0.6407 0.6407 0.6407 0.6407 0.6407 0.6407 0.6407 0.6407 0.6407 0.6407 0.6407 0.6407 0.6407 0.6407 0.6407 0.6407 0.6407 0.6407 0.6407 0.6407 0.6407 0.6407 0.6407 0.6407 0.6407 0.6407 0.6407 0.6407 0.6407 0.6407 0.6407 0.6407 0.6407 0.6407 0.6407 0.6407 0.6407 0.6407 0.6407 0.6407 0.6407 0.6407 0.6407 0.6407 0.6407 0.6407 0.6407 0.6407 0.6407 0.6407 0.6407 0.6407 0.6407 0.6407 0.6407 0.6407 0.6407 0.6407 0.6407 0.6407 0.6407 0.6407 0.6407 0.6407 0.6407 0.6407 0.6407 0.6407 0.6407 0.6407 0.6407 0.6407 0.6407 0.6407 0.6407 0.6407 0.6407 0.6407 0.6407 0.6407 0.6407 0.6407 0.6407 0.6407 0.6407 0.6407 0.6407 0.6407 0.6407 0.6407 0.6407 0.6407 0.6407 0.6407 0.6407 0.6407 0.6407 0.6407 0.6407 0.6407 0.6407 0.6407 0.6407 0.6407 0.6407 0.6407 0.6407 0.6407 0.6407 0.6407 0.6407 0.6407 0.6407 0.6407 0.6407 0.6407 0.6407 0.6407 0.6407 0.6407 0.6407 0.6407 0.6407 0.6407 0.6407 0.6407 0.6407 0.6407 0.6407 0.6407 0.6407 0.6407 0.6407 0.6407 0.6407 0.6407 0.6407 0.6407 0.6407 0.6407 0.6407 0.6407 0.6407 0.6407 0.6407 0.6407 0.6407 0.6407 0.6407 0.6407 0.6407 0.6407 0.6407 0.6407 0.6407 0.6407 0.6407 0.6407 0.6407 0.6407 0.6407 0.6407 0.6407 0.6407 0.6407 0.6407 0.6407 0.6407 0.6407 0.6407 0.6407 0.6407 0.6407 0.6407 0.6407 0.6407 0.6407 0.6407 0.6407 0.6407 0.6407 0.6407 0.6407 0.6407 0.6407 0.6407 0.6407 0.6407 0.6407 0.6407 0.6407 0.6407 0.6407 0.6407 0.6407 0.6407 0.6407 0.6407 0.6407 0.6407 0.6407 0.6407 0.6407 0.6407 0.6407 0.6407 0.6407 0.6407 0.6407 0.6407 0.6407 0.6407 0.6407 0.6407 0.6407 0.6407 0.6407 0.6407 0.6407 0.6407 0.6407 0.6407 0.6407 0.6407 0.6407 0.6407 0.6407 0.6407 0.6407 0.6407 0.6407 0.6407 0.6407 0.6407 0.6407 0.6407 0.6407 0.6407 0.6407 0.6407 0.6407 0.6407 0.6407 0.6407 0.6407 0.6407 0.6407 0.6407 0.6407 0.6407 0.6407 0.6407 0.6407 0.6407 0.6407 0.6407 0.6407 0.6407 0.6407 0.6407 0.6407 0.6407 0.6407 0.6407 0.6407 0.6407 0.6407 0.6407 0.6407 0.6407 0.6407 0.6407 0.6407 0.6407 0.6407 0.6407 0.6407 0.6407 0.6407 0.6407 0.6407 0.6407 0.6407 0.6407 0.6407 0.6407 0.6407 0.6407 0.6407 0.6407 0.6407 0.6407 0.6407 0.6407 0.6407 0.6407 0.6407 0.6407 0.6407 0.6407 0.6407 0.6407 0.6407 0.6407 0.6407 0.6407 0.6407 0.6407 0.6407 0.6407 0.6407 0.6407 0.6407 0.6407 0.6407 0.6407 0.6407 0.6407 0.6407 0.6407 0.6407 0.6407 0.6407 0.6407 0.6407 0.6407 0.6407 0.6407 0.6407 0.6407 0.6407 0.6407 0.6407 0.6407 0.6407 0.6407 0.6407 0.6407 0.6407 0.6407 0.6407 0.6407 0.6407 0.6407 0.6407 0.6407 0.6407 0.6407 0.6407 0.6407 0.6407 